+ 0.1 0 1 tcp 40 ------- 0 0.0 1.0 0 0
- 0.1 0 1 tcp 40 ------- 0 0.0 1.0 0 0
r 0.2016 0 1 tcp 40 ------- 0 0.0 1.0 0 0
+ 0.2016 1 0 ack 40 ------- 0 1.0 0.0 0 1
- 0.2016 1 0 ack 40 ------- 0 1.0 0.0 0 1
r 0.3032 1 0 ack 40 ------- 0 1.0 0.0 0 1
+ 0.3032 0 1 tcp 1040 ------- 0 0.0 1.0 1 2
- 0.3032 0 1 tcp 1040 ------- 0 0.0 1.0 1 2
+ 0.3032 0 1 tcp 1040 ------- 0 0.0 1.0 2 3
- 0.3448 0 1 tcp 1040 ------- 0 0.0 1.0 2 3
r 0.4448 0 1 tcp 1040 ------- 0 0.0 1.0 1 2
+ 0.4448 1 0 ack 40 ------- 0 1.0 0.0 1 4
- 0.4448 1 0 ack 40 ------- 0 1.0 0.0 1 4
r 0.4864 0 1 tcp 1040 ------- 0 0.0 1.0 2 3
+ 0.4864 1 0 ack 40 ------- 0 1.0 0.0 2 5
- 0.4864 1 0 ack 40 ------- 0 1.0 0.0 2 5
r 0.5464 1 0 ack 40 ------- 0 1.0 0.0 1 4
+ 0.5464 0 1 tcp 1040 ------- 0 0.0 1.0 3 6
- 0.5464 0 1 tcp 1040 ------- 0 0.0 1.0 3 6
+ 0.5464 0 1 tcp 1040 ------- 0 0.0 1.0 4 7
r 0.588 1 0 ack 40 ------- 0 1.0 0.0 2 5
+ 0.588 0 1 tcp 1040 ------- 0 0.0 1.0 5 8
+ 0.588 0 1 tcp 1040 ------- 0 0.0 1.0 6 9
- 0.588 0 1 tcp 1040 ------- 0 0.0 1.0 4 7
- 0.6296 0 1 tcp 1040 ------- 0 0.0 1.0 5 8
- 0.6712 0 1 tcp 1040 ------- 0 0.0 1.0 6 9
r 0.688 0 1 tcp 1040 ------- 0 0.0 1.0 3 6
+ 0.688 1 0 ack 40 ------- 0 1.0 0.0 3 10
- 0.688 1 0 ack 40 ------- 0 1.0 0.0 3 10
r 0.7296 0 1 tcp 1040 ------- 0 0.0 1.0 4 7
+ 0.7296 1 0 ack 40 ------- 0 1.0 0.0 4 11
- 0.7296 1 0 ack 40 ------- 0 1.0 0.0 4 11
r 0.7712 0 1 tcp 1040 ------- 0 0.0 1.0 5 8
+ 0.7712 1 0 ack 40 ------- 0 1.0 0.0 5 12
- 0.7712 1 0 ack 40 ------- 0 1.0 0.0 5 12
r 0.7896 1 0 ack 40 ------- 0 1.0 0.0 3 10
+ 0.7896 0 1 tcp 1040 ------- 0 0.0 1.0 7 13
- 0.7896 0 1 tcp 1040 ------- 0 0.0 1.0 7 13
+ 0.7896 0 1 tcp 1040 ------- 0 0.0 1.0 8 14
r 0.8128 0 1 tcp 1040 ------- 0 0.0 1.0 6 9
+ 0.8128 1 0 ack 40 ------- 0 1.0 0.0 6 15
- 0.8128 1 0 ack 40 ------- 0 1.0 0.0 6 15
- 0.8312 0 1 tcp 1040 ------- 0 0.0 1.0 8 14
r 0.8312 1 0 ack 40 ------- 0 1.0 0.0 4 11
+ 0.8312 0 1 tcp 1040 ------- 0 0.0 1.0 9 16
+ 0.8312 0 1 tcp 1040 ------- 0 0.0 1.0 10 17
r 0.8728 1 0 ack 40 ------- 0 1.0 0.0 5 12
+ 0.8728 0 1 tcp 1040 ------- 0 0.0 1.0 11 18
+ 0.8728 0 1 tcp 1040 ------- 0 0.0 1.0 12 19
- 0.8728 0 1 tcp 1040 ------- 0 0.0 1.0 9 16
- 0.9144 0 1 tcp 1040 ------- 0 0.0 1.0 10 17
r 0.9144 1 0 ack 40 ------- 0 1.0 0.0 6 15
+ 0.9144 0 1 tcp 1040 ------- 0 0.0 1.0 13 20
+ 0.9144 0 1 tcp 1040 ------- 0 0.0 1.0 14 21
r 0.9312 0 1 tcp 1040 ------- 0 0.0 1.0 7 13
+ 0.9312 1 0 ack 40 ------- 0 1.0 0.0 7 22
- 0.9312 1 0 ack 40 ------- 0 1.0 0.0 7 22
- 0.956 0 1 tcp 1040 ------- 0 0.0 1.0 11 18
r 0.9728 0 1 tcp 1040 ------- 0 0.0 1.0 8 14
+ 0.9728 1 0 ack 40 ------- 0 1.0 0.0 8 23
- 0.9728 1 0 ack 40 ------- 0 1.0 0.0 8 23
- 0.9976 0 1 tcp 1040 ------- 0 0.0 1.0 12 19
r 1.0144 0 1 tcp 1040 ------- 0 0.0 1.0 9 16
+ 1.0144 1 0 ack 40 ------- 0 1.0 0.0 9 24
- 1.0144 1 0 ack 40 ------- 0 1.0 0.0 9 24
r 1.0328 1 0 ack 40 ------- 0 1.0 0.0 7 22
+ 1.0328 0 1 tcp 1040 ------- 0 0.0 1.0 15 25
+ 1.0328 0 1 tcp 1040 ------- 0 0.0 1.0 16 26
- 1.0392 0 1 tcp 1040 ------- 0 0.0 1.0 13 20
r 1.056 0 1 tcp 1040 ------- 0 0.0 1.0 10 17
+ 1.056 1 0 ack 40 ------- 0 1.0 0.0 10 27
- 1.056 1 0 ack 40 ------- 0 1.0 0.0 10 27
r 1.0744 1 0 ack 40 ------- 0 1.0 0.0 8 23
+ 1.0744 0 1 tcp 1040 ------- 0 0.0 1.0 17 28
+ 1.0744 0 1 tcp 1040 ------- 0 0.0 1.0 18 29
- 1.0808 0 1 tcp 1040 ------- 0 0.0 1.0 14 21
r 1.0976 0 1 tcp 1040 ------- 0 0.0 1.0 11 18
+ 1.0976 1 0 ack 40 ------- 0 1.0 0.0 11 30
- 1.0976 1 0 ack 40 ------- 0 1.0 0.0 11 30
r 1.116 1 0 ack 40 ------- 0 1.0 0.0 9 24
+ 1.116 0 1 tcp 1040 ------- 0 0.0 1.0 19 31
+ 1.116 0 1 tcp 1040 ------- 0 0.0 1.0 20 32
- 1.1224 0 1 tcp 1040 ------- 0 0.0 1.0 15 25
r 1.1392 0 1 tcp 1040 ------- 0 0.0 1.0 12 19
+ 1.1392 1 0 ack 40 ------- 0 1.0 0.0 12 33
- 1.1392 1 0 ack 40 ------- 0 1.0 0.0 12 33
r 1.1576 1 0 ack 40 ------- 0 1.0 0.0 10 27
+ 1.1576 0 1 tcp 1040 ------- 0 0.0 1.0 21 34
+ 1.1576 0 1 tcp 1040 ------- 0 0.0 1.0 22 35
- 1.164 0 1 tcp 1040 ------- 0 0.0 1.0 16 26
r 1.1808 0 1 tcp 1040 ------- 0 0.0 1.0 13 20
+ 1.1808 1 0 ack 40 ------- 0 1.0 0.0 13 36
- 1.1808 1 0 ack 40 ------- 0 1.0 0.0 13 36
r 1.1992 1 0 ack 40 ------- 0 1.0 0.0 11 30
+ 1.1992 0 1 tcp 1040 ------- 0 0.0 1.0 23 37
+ 1.1992 0 1 tcp 1040 ------- 0 0.0 1.0 24 38
- 1.2056 0 1 tcp 1040 ------- 0 0.0 1.0 17 28
r 1.2224 0 1 tcp 1040 ------- 0 0.0 1.0 14 21
+ 1.2224 1 0 ack 40 ------- 0 1.0 0.0 14 39
- 1.2224 1 0 ack 40 ------- 0 1.0 0.0 14 39
r 1.2408 1 0 ack 40 ------- 0 1.0 0.0 12 33
+ 1.2408 0 1 tcp 1040 ------- 0 0.0 1.0 25 40
+ 1.2408 0 1 tcp 1040 ------- 0 0.0 1.0 26 41
- 1.2472 0 1 tcp 1040 ------- 0 0.0 1.0 18 29
r 1.264 0 1 tcp 1040 ------- 0 0.0 1.0 15 25
+ 1.264 1 0 ack 40 ------- 0 1.0 0.0 15 42
- 1.264 1 0 ack 40 ------- 0 1.0 0.0 15 42
r 1.2824 1 0 ack 40 ------- 0 1.0 0.0 13 36
+ 1.2824 0 1 tcp 1040 ------- 0 0.0 1.0 27 43
+ 1.2824 0 1 tcp 1040 ------- 0 0.0 1.0 28 44
d 1.2824 0 1 tcp 1040 ------- 0 0.0 1.0 28 44
- 1.2888 0 1 tcp 1040 ------- 0 0.0 1.0 19 31
r 1.3056 0 1 tcp 1040 ------- 0 0.0 1.0 16 26
+ 1.3056 1 0 ack 40 ------- 0 1.0 0.0 16 45
- 1.3056 1 0 ack 40 ------- 0 1.0 0.0 16 45
r 1.324 1 0 ack 40 ------- 0 1.0 0.0 14 39
+ 1.324 0 1 tcp 1040 ------- 0 0.0 1.0 29 46
+ 1.324 0 1 tcp 1040 ------- 0 0.0 1.0 30 47
d 1.324 0 1 tcp 1040 ------- 0 0.0 1.0 30 47
- 1.3304 0 1 tcp 1040 ------- 0 0.0 1.0 20 32
r 1.3472 0 1 tcp 1040 ------- 0 0.0 1.0 17 28
+ 1.3472 1 0 ack 40 ------- 0 1.0 0.0 17 48
- 1.3472 1 0 ack 40 ------- 0 1.0 0.0 17 48
r 1.3656 1 0 ack 40 ------- 0 1.0 0.0 15 42
+ 1.3656 0 1 tcp 1040 ------- 0 0.0 1.0 31 49
+ 1.3656 0 1 tcp 1040 ------- 0 0.0 1.0 32 50
d 1.3656 0 1 tcp 1040 ------- 0 0.0 1.0 32 50
- 1.372 0 1 tcp 1040 ------- 0 0.0 1.0 21 34
r 1.3888 0 1 tcp 1040 ------- 0 0.0 1.0 18 29
+ 1.3888 1 0 ack 40 ------- 0 1.0 0.0 18 51
- 1.3888 1 0 ack 40 ------- 0 1.0 0.0 18 51
r 1.4072 1 0 ack 40 ------- 0 1.0 0.0 16 45
+ 1.4072 0 1 tcp 1040 ------- 0 0.0 1.0 33 52
+ 1.4072 0 1 tcp 1040 ------- 0 0.0 1.0 34 53
d 1.4072 0 1 tcp 1040 ------- 0 0.0 1.0 34 53
- 1.4136 0 1 tcp 1040 ------- 0 0.0 1.0 22 35
r 1.4304 0 1 tcp 1040 ------- 0 0.0 1.0 19 31
+ 1.4304 1 0 ack 40 ------- 0 1.0 0.0 19 54
- 1.4304 1 0 ack 40 ------- 0 1.0 0.0 19 54
r 1.4488 1 0 ack 40 ------- 0 1.0 0.0 17 48
+ 1.4488 0 1 tcp 1040 ------- 0 0.0 1.0 35 55
+ 1.4488 0 1 tcp 1040 ------- 0 0.0 1.0 36 56
d 1.4488 0 1 tcp 1040 ------- 0 0.0 1.0 36 56
- 1.4552 0 1 tcp 1040 ------- 0 0.0 1.0 23 37
r 1.472 0 1 tcp 1040 ------- 0 0.0 1.0 20 32
+ 1.472 1 0 ack 40 ------- 0 1.0 0.0 20 57
- 1.472 1 0 ack 40 ------- 0 1.0 0.0 20 57
r 1.4904 1 0 ack 40 ------- 0 1.0 0.0 18 51
+ 1.4904 0 1 tcp 1040 ------- 0 0.0 1.0 37 58
+ 1.4904 0 1 tcp 1040 ------- 0 0.0 1.0 38 59
d 1.4904 0 1 tcp 1040 ------- 0 0.0 1.0 38 59
- 1.4968 0 1 tcp 1040 ------- 0 0.0 1.0 24 38
r 1.5136 0 1 tcp 1040 ------- 0 0.0 1.0 21 34
+ 1.5136 1 0 ack 40 ------- 0 1.0 0.0 21 60
- 1.5136 1 0 ack 40 ------- 0 1.0 0.0 21 60
r 1.532 1 0 ack 40 ------- 0 1.0 0.0 19 54
+ 1.532 0 1 tcp 1040 ------- 0 0.0 1.0 39 61
+ 1.532 0 1 tcp 1040 ------- 0 0.0 1.0 40 62
d 1.532 0 1 tcp 1040 ------- 0 0.0 1.0 40 62
- 1.5384 0 1 tcp 1040 ------- 0 0.0 1.0 25 40
r 1.5552 0 1 tcp 1040 ------- 0 0.0 1.0 22 35
+ 1.5552 1 0 ack 40 ------- 0 1.0 0.0 22 63
- 1.5552 1 0 ack 40 ------- 0 1.0 0.0 22 63
r 1.5736 1 0 ack 40 ------- 0 1.0 0.0 20 57
+ 1.5736 0 1 tcp 1040 ------- 0 0.0 1.0 41 64
+ 1.5736 0 1 tcp 1040 ------- 0 0.0 1.0 42 65
d 1.5736 0 1 tcp 1040 ------- 0 0.0 1.0 42 65
- 1.58 0 1 tcp 1040 ------- 0 0.0 1.0 26 41
r 1.5968 0 1 tcp 1040 ------- 0 0.0 1.0 23 37
+ 1.5968 1 0 ack 40 ------- 0 1.0 0.0 23 66
- 1.5968 1 0 ack 40 ------- 0 1.0 0.0 23 66
r 1.6152 1 0 ack 40 ------- 0 1.0 0.0 21 60
+ 1.6152 0 1 tcp 1040 ------- 0 0.0 1.0 43 67
+ 1.6152 0 1 tcp 1040 ------- 0 0.0 1.0 44 68
d 1.6152 0 1 tcp 1040 ------- 0 0.0 1.0 44 68
- 1.6216 0 1 tcp 1040 ------- 0 0.0 1.0 27 43
r 1.6384 0 1 tcp 1040 ------- 0 0.0 1.0 24 38
+ 1.6384 1 0 ack 40 ------- 0 1.0 0.0 24 69
- 1.6384 1 0 ack 40 ------- 0 1.0 0.0 24 69
r 1.6568 1 0 ack 40 ------- 0 1.0 0.0 22 63
+ 1.6568 0 1 tcp 1040 ------- 0 0.0 1.0 45 70
+ 1.6568 0 1 tcp 1040 ------- 0 0.0 1.0 46 71
d 1.6568 0 1 tcp 1040 ------- 0 0.0 1.0 46 71
- 1.6632 0 1 tcp 1040 ------- 0 0.0 1.0 29 46
r 1.68 0 1 tcp 1040 ------- 0 0.0 1.0 25 40
+ 1.68 1 0 ack 40 ------- 0 1.0 0.0 25 72
- 1.68 1 0 ack 40 ------- 0 1.0 0.0 25 72
r 1.6984 1 0 ack 40 ------- 0 1.0 0.0 23 66
+ 1.6984 0 1 tcp 1040 ------- 0 0.0 1.0 47 73
+ 1.6984 0 1 tcp 1040 ------- 0 0.0 1.0 48 74
d 1.6984 0 1 tcp 1040 ------- 0 0.0 1.0 48 74
- 1.7048 0 1 tcp 1040 ------- 0 0.0 1.0 31 49
r 1.7216 0 1 tcp 1040 ------- 0 0.0 1.0 26 41
+ 1.7216 1 0 ack 40 ------- 0 1.0 0.0 26 75
- 1.7216 1 0 ack 40 ------- 0 1.0 0.0 26 75
r 1.74 1 0 ack 40 ------- 0 1.0 0.0 24 69
+ 1.74 0 1 tcp 1040 ------- 0 0.0 1.0 49 76
+ 1.74 0 1 tcp 1040 ------- 0 0.0 1.0 50 77
d 1.74 0 1 tcp 1040 ------- 0 0.0 1.0 50 77
- 1.7464 0 1 tcp 1040 ------- 0 0.0 1.0 33 52
r 1.7632 0 1 tcp 1040 ------- 0 0.0 1.0 27 43
+ 1.7632 1 0 ack 40 ------- 0 1.0 0.0 27 78
- 1.7632 1 0 ack 40 ------- 0 1.0 0.0 27 78
r 1.7816 1 0 ack 40 ------- 0 1.0 0.0 25 72
+ 1.7816 0 1 tcp 1040 ------- 0 0.0 1.0 51 79
+ 1.7816 0 1 tcp 1040 ------- 0 0.0 1.0 52 80
d 1.7816 0 1 tcp 1040 ------- 0 0.0 1.0 52 80
- 1.788 0 1 tcp 1040 ------- 0 0.0 1.0 35 55
r 1.8048 0 1 tcp 1040 ------- 0 0.0 1.0 29 46
+ 1.8048 1 0 ack 40 ------- 0 1.0 0.0 27 81
- 1.8048 1 0 ack 40 ------- 0 1.0 0.0 27 81
r 1.8232 1 0 ack 40 ------- 0 1.0 0.0 26 75
+ 1.8232 0 1 tcp 1040 ------- 0 0.0 1.0 53 82
+ 1.8232 0 1 tcp 1040 ------- 0 0.0 1.0 54 83
d 1.8232 0 1 tcp 1040 ------- 0 0.0 1.0 54 83
- 1.8296 0 1 tcp 1040 ------- 0 0.0 1.0 37 58
r 1.8464 0 1 tcp 1040 ------- 0 0.0 1.0 31 49
+ 1.8464 1 0 ack 40 ------- 0 1.0 0.0 27 84
- 1.8464 1 0 ack 40 ------- 0 1.0 0.0 27 84
r 1.8648 1 0 ack 40 ------- 0 1.0 0.0 27 78
+ 1.8648 0 1 tcp 1040 ------- 0 0.0 1.0 55 85
+ 1.8648 0 1 tcp 1040 ------- 0 0.0 1.0 56 86
d 1.8648 0 1 tcp 1040 ------- 0 0.0 1.0 56 86
- 1.8712 0 1 tcp 1040 ------- 0 0.0 1.0 39 61
r 1.888 0 1 tcp 1040 ------- 0 0.0 1.0 33 52
+ 1.888 1 0 ack 40 ------- 0 1.0 0.0 27 87
- 1.888 1 0 ack 40 ------- 0 1.0 0.0 27 87
r 1.9064 1 0 ack 40 ------- 0 1.0 0.0 27 81
+ 1.9064 0 1 tcp 1040 ------- 0 0.0 1.0 57 88
- 1.9128 0 1 tcp 1040 ------- 0 0.0 1.0 41 64
r 1.9296 0 1 tcp 1040 ------- 0 0.0 1.0 35 55
+ 1.9296 1 0 ack 40 ------- 0 1.0 0.0 27 89
- 1.9296 1 0 ack 40 ------- 0 1.0 0.0 27 89
r 1.948 1 0 ack 40 ------- 0 1.0 0.0 27 84
+ 1.948 0 1 tcp 1040 ------- 0 0.0 1.0 58 90
- 1.9544 0 1 tcp 1040 ------- 0 0.0 1.0 43 67
r 1.9712 0 1 tcp 1040 ------- 0 0.0 1.0 37 58
+ 1.9712 1 0 ack 40 ------- 0 1.0 0.0 27 91
- 1.9712 1 0 ack 40 ------- 0 1.0 0.0 27 91
r 1.9896 1 0 ack 40 ------- 0 1.0 0.0 27 87
+ 1.9896 0 1 tcp 1040 ---A--- 0 0.0 1.0 28 92
- 1.996 0 1 tcp 1040 ------- 0 0.0 1.0 45 70
r 2.0128 0 1 tcp 1040 ------- 0 0.0 1.0 39 61
+ 2.0128 1 0 ack 40 ------- 0 1.0 0.0 27 93
- 2.0128 1 0 ack 40 ------- 0 1.0 0.0 27 93
r 2.0312 1 0 ack 40 ------- 0 1.0 0.0 27 89
- 2.0376 0 1 tcp 1040 ------- 0 0.0 1.0 47 73
r 2.0544 0 1 tcp 1040 ------- 0 0.0 1.0 41 64
+ 2.0544 1 0 ack 40 ------- 0 1.0 0.0 27 94
- 2.0544 1 0 ack 40 ------- 0 1.0 0.0 27 94
r 2.0728 1 0 ack 40 ------- 0 1.0 0.0 27 91
- 2.0792 0 1 tcp 1040 ------- 0 0.0 1.0 49 76
r 2.096 0 1 tcp 1040 ------- 0 0.0 1.0 43 67
+ 2.096 1 0 ack 40 ------- 0 1.0 0.0 27 95
- 2.096 1 0 ack 40 ------- 0 1.0 0.0 27 95
r 2.1144 1 0 ack 40 ------- 0 1.0 0.0 27 93
- 2.1208 0 1 tcp 1040 ------- 0 0.0 1.0 51 79
r 2.1376 0 1 tcp 1040 ------- 0 0.0 1.0 45 70
+ 2.1376 1 0 ack 40 ------- 0 1.0 0.0 27 96
- 2.1376 1 0 ack 40 ------- 0 1.0 0.0 27 96
r 2.156 1 0 ack 40 ------- 0 1.0 0.0 27 94
- 2.1624 0 1 tcp 1040 ------- 0 0.0 1.0 53 82
r 2.1792 0 1 tcp 1040 ------- 0 0.0 1.0 47 73
+ 2.1792 1 0 ack 40 ------- 0 1.0 0.0 27 97
- 2.1792 1 0 ack 40 ------- 0 1.0 0.0 27 97
r 2.1976 1 0 ack 40 ------- 0 1.0 0.0 27 95
- 2.204 0 1 tcp 1040 ------- 0 0.0 1.0 55 85
r 2.2208 0 1 tcp 1040 ------- 0 0.0 1.0 49 76
+ 2.2208 1 0 ack 40 ------- 0 1.0 0.0 27 98
- 2.2208 1 0 ack 40 ------- 0 1.0 0.0 27 98
r 2.2392 1 0 ack 40 ------- 0 1.0 0.0 27 96
- 2.2456 0 1 tcp 1040 ------- 0 0.0 1.0 57 88
r 2.2624 0 1 tcp 1040 ------- 0 0.0 1.0 51 79
+ 2.2624 1 0 ack 40 ------- 0 1.0 0.0 27 99
- 2.2624 1 0 ack 40 ------- 0 1.0 0.0 27 99
r 2.2808 1 0 ack 40 ------- 0 1.0 0.0 27 97
- 2.2872 0 1 tcp 1040 ------- 0 0.0 1.0 58 90
r 2.304 0 1 tcp 1040 ------- 0 0.0 1.0 53 82
+ 2.304 1 0 ack 40 ------- 0 1.0 0.0 27 100
- 2.304 1 0 ack 40 ------- 0 1.0 0.0 27 100
r 2.3224 1 0 ack 40 ------- 0 1.0 0.0 27 98
- 2.3288 0 1 tcp 1040 ---A--- 0 0.0 1.0 28 92
r 2.3456 0 1 tcp 1040 ------- 0 0.0 1.0 55 85
+ 2.3456 1 0 ack 40 ------- 0 1.0 0.0 27 101
- 2.3456 1 0 ack 40 ------- 0 1.0 0.0 27 101
r 2.364 1 0 ack 40 ------- 0 1.0 0.0 27 99
r 2.3872 0 1 tcp 1040 ------- 0 0.0 1.0 57 88
+ 2.3872 1 0 ack 40 ------- 0 1.0 0.0 27 102
- 2.3872 1 0 ack 40 ------- 0 1.0 0.0 27 102
r 2.4056 1 0 ack 40 ------- 0 1.0 0.0 27 100
r 2.4288 0 1 tcp 1040 ------- 0 0.0 1.0 58 90
+ 2.4288 1 0 ack 40 ------- 0 1.0 0.0 27 103
- 2.4288 1 0 ack 40 ------- 0 1.0 0.0 27 103
r 2.4472 1 0 ack 40 ------- 0 1.0 0.0 27 101
r 2.4704 0 1 tcp 1040 ---A--- 0 0.0 1.0 28 92
+ 2.4704 1 0 ack 40 ------- 0 1.0 0.0 29 104
- 2.4704 1 0 ack 40 ------- 0 1.0 0.0 29 104
r 2.4888 1 0 ack 40 ------- 0 1.0 0.0 27 102
r 2.5304 1 0 ack 40 ------- 0 1.0 0.0 27 103
+ 2.5596 0 1 tcp 1040 ---A--- 0 0.0 1.0 28 105
- 2.5596 0 1 tcp 1040 ---A--- 0 0.0 1.0 28 105
r 2.572 1 0 ack 40 ------- 0 1.0 0.0 29 104
+ 2.572 0 1 tcp 1040 ------- 0 0.0 1.0 30 106
+ 2.572 0 1 tcp 1040 ------- 0 0.0 1.0 31 107
- 2.6012 0 1 tcp 1040 ------- 0 0.0 1.0 30 106
- 2.6428 0 1 tcp 1040 ------- 0 0.0 1.0 31 107
r 2.7012 0 1 tcp 1040 ---A--- 0 0.0 1.0 28 105
+ 2.7012 1 0 ack 40 ------- 0 1.0 0.0 29 108
- 2.7012 1 0 ack 40 ------- 0 1.0 0.0 29 108
r 2.7428 0 1 tcp 1040 ------- 0 0.0 1.0 30 106
+ 2.7428 1 0 ack 40 ------- 0 1.0 0.0 31 109
- 2.7428 1 0 ack 40 ------- 0 1.0 0.0 31 109
r 2.7844 0 1 tcp 1040 ------- 0 0.0 1.0 31 107
+ 2.7844 1 0 ack 40 ------- 0 1.0 0.0 31 110
- 2.7844 1 0 ack 40 ------- 0 1.0 0.0 31 110
r 2.8028 1 0 ack 40 ------- 0 1.0 0.0 29 108
+ 2.8028 0 1 tcp 1040 ------- 0 0.0 1.0 32 111
- 2.8028 0 1 tcp 1040 ------- 0 0.0 1.0 32 111
r 2.8444 1 0 ack 40 ------- 0 1.0 0.0 31 109
+ 2.8444 0 1 tcp 1040 ------- 0 0.0 1.0 33 112
- 2.8444 0 1 tcp 1040 ------- 0 0.0 1.0 33 112
r 2.886 1 0 ack 40 ------- 0 1.0 0.0 31 110
+ 2.886 0 1 tcp 1040 ------- 0 0.0 1.0 34 113
- 2.886 0 1 tcp 1040 ------- 0 0.0 1.0 34 113
r 2.9444 0 1 tcp 1040 ------- 0 0.0 1.0 32 111
+ 2.9444 1 0 ack 40 ------- 0 1.0 0.0 33 114
- 2.9444 1 0 ack 40 ------- 0 1.0 0.0 33 114
r 2.986 0 1 tcp 1040 ------- 0 0.0 1.0 33 112
+ 2.986 1 0 ack 40 ------- 0 1.0 0.0 33 115
- 2.986 1 0 ack 40 ------- 0 1.0 0.0 33 115
r 3.0276 0 1 tcp 1040 ------- 0 0.0 1.0 34 113
+ 3.0276 1 0 ack 40 ------- 0 1.0 0.0 35 116
- 3.0276 1 0 ack 40 ------- 0 1.0 0.0 35 116
r 3.046 1 0 ack 40 ------- 0 1.0 0.0 33 114
+ 3.046 0 1 tcp 1040 ------- 0 0.0 1.0 35 117
- 3.046 0 1 tcp 1040 ------- 0 0.0 1.0 35 117
r 3.0876 1 0 ack 40 ------- 0 1.0 0.0 33 115
+ 3.0876 0 1 tcp 1040 ------- 0 0.0 1.0 36 118
- 3.0876 0 1 tcp 1040 ------- 0 0.0 1.0 36 118
r 3.1292 1 0 ack 40 ------- 0 1.0 0.0 35 116
+ 3.1292 0 1 tcp 1040 ------- 0 0.0 1.0 37 119
+ 3.1292 0 1 tcp 1040 ------- 0 0.0 1.0 38 120
- 3.1292 0 1 tcp 1040 ------- 0 0.0 1.0 37 119
- 3.1708 0 1 tcp 1040 ------- 0 0.0 1.0 38 120
r 3.1876 0 1 tcp 1040 ------- 0 0.0 1.0 35 117
+ 3.1876 1 0 ack 40 ------- 0 1.0 0.0 35 121
- 3.1876 1 0 ack 40 ------- 0 1.0 0.0 35 121
r 3.2292 0 1 tcp 1040 ------- 0 0.0 1.0 36 118
+ 3.2292 1 0 ack 40 ------- 0 1.0 0.0 37 122
- 3.2292 1 0 ack 40 ------- 0 1.0 0.0 37 122
r 3.2708 0 1 tcp 1040 ------- 0 0.0 1.0 37 119
+ 3.2708 1 0 ack 40 ------- 0 1.0 0.0 37 123
- 3.2708 1 0 ack 40 ------- 0 1.0 0.0 37 123
r 3.2892 1 0 ack 40 ------- 0 1.0 0.0 35 121
+ 3.2892 0 1 tcp 1040 ------- 0 0.0 1.0 39 124
- 3.2892 0 1 tcp 1040 ------- 0 0.0 1.0 39 124
r 3.3124 0 1 tcp 1040 ------- 0 0.0 1.0 38 120
+ 3.3124 1 0 ack 40 ------- 0 1.0 0.0 39 125
- 3.3124 1 0 ack 40 ------- 0 1.0 0.0 39 125
r 3.3308 1 0 ack 40 ------- 0 1.0 0.0 37 122
+ 3.3308 0 1 tcp 1040 ------- 0 0.0 1.0 40 126
- 3.3308 0 1 tcp 1040 ------- 0 0.0 1.0 40 126
r 3.3724 1 0 ack 40 ------- 0 1.0 0.0 37 123
+ 3.3724 0 1 tcp 1040 ------- 0 0.0 1.0 41 127
- 3.3724 0 1 tcp 1040 ------- 0 0.0 1.0 41 127
r 3.414 1 0 ack 40 ------- 0 1.0 0.0 39 125
+ 3.414 0 1 tcp 1040 ------- 0 0.0 1.0 42 128
- 3.414 0 1 tcp 1040 ------- 0 0.0 1.0 42 128
r 3.4308 0 1 tcp 1040 ------- 0 0.0 1.0 39 124
+ 3.4308 1 0 ack 40 ------- 0 1.0 0.0 39 129
- 3.4308 1 0 ack 40 ------- 0 1.0 0.0 39 129
r 3.4724 0 1 tcp 1040 ------- 0 0.0 1.0 40 126
+ 3.4724 1 0 ack 40 ------- 0 1.0 0.0 41 130
- 3.4724 1 0 ack 40 ------- 0 1.0 0.0 41 130
r 3.514 0 1 tcp 1040 ------- 0 0.0 1.0 41 127
+ 3.514 1 0 ack 40 ------- 0 1.0 0.0 41 131
- 3.514 1 0 ack 40 ------- 0 1.0 0.0 41 131
r 3.5324 1 0 ack 40 ------- 0 1.0 0.0 39 129
+ 3.5324 0 1 tcp 1040 ------- 0 0.0 1.0 43 132
- 3.5324 0 1 tcp 1040 ------- 0 0.0 1.0 43 132
r 3.5556 0 1 tcp 1040 ------- 0 0.0 1.0 42 128
+ 3.5556 1 0 ack 40 ------- 0 1.0 0.0 43 133
- 3.5556 1 0 ack 40 ------- 0 1.0 0.0 43 133
r 3.574 1 0 ack 40 ------- 0 1.0 0.0 41 130
+ 3.574 0 1 tcp 1040 ------- 0 0.0 1.0 44 134
+ 3.574 0 1 tcp 1040 ------- 0 0.0 1.0 45 135
- 3.574 0 1 tcp 1040 ------- 0 0.0 1.0 44 134
r 3.6156 1 0 ack 40 ------- 0 1.0 0.0 41 131
+ 3.6156 0 1 tcp 1040 ------- 0 0.0 1.0 46 136
- 3.6156 0 1 tcp 1040 ------- 0 0.0 1.0 45 135
r 3.6572 1 0 ack 40 ------- 0 1.0 0.0 43 133
+ 3.6572 0 1 tcp 1040 ------- 0 0.0 1.0 47 137
- 3.6572 0 1 tcp 1040 ------- 0 0.0 1.0 46 136
r 3.674 0 1 tcp 1040 ------- 0 0.0 1.0 43 132
+ 3.674 1 0 ack 40 ------- 0 1.0 0.0 43 138
- 3.674 1 0 ack 40 ------- 0 1.0 0.0 43 138
- 3.6988 0 1 tcp 1040 ------- 0 0.0 1.0 47 137
r 3.7156 0 1 tcp 1040 ------- 0 0.0 1.0 44 134
+ 3.7156 1 0 ack 40 ------- 0 1.0 0.0 45 139
- 3.7156 1 0 ack 40 ------- 0 1.0 0.0 45 139
r 3.7572 0 1 tcp 1040 ------- 0 0.0 1.0 45 135
+ 3.7572 1 0 ack 40 ------- 0 1.0 0.0 45 140
- 3.7572 1 0 ack 40 ------- 0 1.0 0.0 45 140
r 3.7756 1 0 ack 40 ------- 0 1.0 0.0 43 138
+ 3.7756 0 1 tcp 1040 ------- 0 0.0 1.0 48 141
- 3.7756 0 1 tcp 1040 ------- 0 0.0 1.0 48 141
r 3.7988 0 1 tcp 1040 ------- 0 0.0 1.0 46 136
+ 3.7988 1 0 ack 40 ------- 0 1.0 0.0 47 142
- 3.7988 1 0 ack 40 ------- 0 1.0 0.0 47 142
r 3.8172 1 0 ack 40 ------- 0 1.0 0.0 45 139
+ 3.8172 0 1 tcp 1040 ------- 0 0.0 1.0 49 143
- 3.8172 0 1 tcp 1040 ------- 0 0.0 1.0 49 143
r 3.8404 0 1 tcp 1040 ------- 0 0.0 1.0 47 137
+ 3.8404 1 0 ack 40 ------- 0 1.0 0.0 47 144
- 3.8404 1 0 ack 40 ------- 0 1.0 0.0 47 144
r 3.8588 1 0 ack 40 ------- 0 1.0 0.0 45 140
+ 3.8588 0 1 tcp 1040 ------- 0 0.0 1.0 50 145
- 3.8588 0 1 tcp 1040 ------- 0 0.0 1.0 50 145
r 3.9004 1 0 ack 40 ------- 0 1.0 0.0 47 142
+ 3.9004 0 1 tcp 1040 ------- 0 0.0 1.0 51 146
- 3.9004 0 1 tcp 1040 ------- 0 0.0 1.0 51 146
r 3.9172 0 1 tcp 1040 ------- 0 0.0 1.0 48 141
+ 3.9172 1 0 ack 40 ------- 0 1.0 0.0 49 147
- 3.9172 1 0 ack 40 ------- 0 1.0 0.0 49 147
r 3.942 1 0 ack 40 ------- 0 1.0 0.0 47 144
+ 3.942 0 1 tcp 1040 ------- 0 0.0 1.0 52 148
- 3.942 0 1 tcp 1040 ------- 0 0.0 1.0 52 148
r 3.9588 0 1 tcp 1040 ------- 0 0.0 1.0 49 143
+ 3.9588 1 0 ack 40 ------- 0 1.0 0.0 49 149
- 3.9588 1 0 ack 40 ------- 0 1.0 0.0 49 149
r 4.0004 0 1 tcp 1040 ------- 0 0.0 1.0 50 145
+ 4.0004 1 0 ack 40 ------- 0 1.0 0.0 51 150
- 4.0004 1 0 ack 40 ------- 0 1.0 0.0 51 150
r 4.0188 1 0 ack 40 ------- 0 1.0 0.0 49 147
+ 4.0188 0 1 tcp 1040 ------- 0 0.0 1.0 53 151
- 4.0188 0 1 tcp 1040 ------- 0 0.0 1.0 53 151
r 4.042 0 1 tcp 1040 ------- 0 0.0 1.0 51 146
+ 4.042 1 0 ack 40 ------- 0 1.0 0.0 51 152
- 4.042 1 0 ack 40 ------- 0 1.0 0.0 51 152
r 4.0604 1 0 ack 40 ------- 0 1.0 0.0 49 149
+ 4.0604 0 1 tcp 1040 ------- 0 0.0 1.0 54 153
- 4.0604 0 1 tcp 1040 ------- 0 0.0 1.0 54 153
r 4.0836 0 1 tcp 1040 ------- 0 0.0 1.0 52 148
+ 4.0836 1 0 ack 40 ------- 0 1.0 0.0 53 154
- 4.0836 1 0 ack 40 ------- 0 1.0 0.0 53 154
r 4.102 1 0 ack 40 ------- 0 1.0 0.0 51 150
+ 4.102 0 1 tcp 1040 ------- 0 0.0 1.0 55 155
- 4.102 0 1 tcp 1040 ------- 0 0.0 1.0 55 155
+ 4.102 0 1 tcp 1040 ------- 0 0.0 1.0 56 156
r 4.1436 1 0 ack 40 ------- 0 1.0 0.0 51 152
+ 4.1436 0 1 tcp 1040 ------- 0 0.0 1.0 57 157
- 4.1436 0 1 tcp 1040 ------- 0 0.0 1.0 56 156
r 4.1604 0 1 tcp 1040 ------- 0 0.0 1.0 53 151
+ 4.1604 1 0 ack 40 ------- 0 1.0 0.0 53 158
- 4.1604 1 0 ack 40 ------- 0 1.0 0.0 53 158
r 4.1852 1 0 ack 40 ------- 0 1.0 0.0 53 154
+ 4.1852 0 1 tcp 1040 ------- 0 0.0 1.0 58 159
- 4.1852 0 1 tcp 1040 ------- 0 0.0 1.0 57 157
r 4.202 0 1 tcp 1040 ------- 0 0.0 1.0 54 153
+ 4.202 1 0 ack 40 ------- 0 1.0 0.0 55 160
- 4.202 1 0 ack 40 ------- 0 1.0 0.0 55 160
- 4.2268 0 1 tcp 1040 ------- 0 0.0 1.0 58 159
r 4.2436 0 1 tcp 1040 ------- 0 0.0 1.0 55 155
+ 4.2436 1 0 ack 40 ------- 0 1.0 0.0 55 161
- 4.2436 1 0 ack 40 ------- 0 1.0 0.0 55 161
r 4.262 1 0 ack 40 ------- 0 1.0 0.0 53 158
+ 4.262 0 1 tcp 1040 ------- 0 0.0 1.0 59 162
- 4.2684 0 1 tcp 1040 ------- 0 0.0 1.0 59 162
r 4.2852 0 1 tcp 1040 ------- 0 0.0 1.0 56 156
+ 4.2852 1 0 ack 40 ------- 0 1.0 0.0 58 163
- 4.2852 1 0 ack 40 ------- 0 1.0 0.0 58 163
r 4.3036 1 0 ack 40 ------- 0 1.0 0.0 55 160
+ 4.3036 0 1 tcp 1040 ------- 0 0.0 1.0 60 164
- 4.31 0 1 tcp 1040 ------- 0 0.0 1.0 60 164
r 4.3268 0 1 tcp 1040 ------- 0 0.0 1.0 57 157
+ 4.3268 1 0 ack 40 ------- 0 1.0 0.0 58 165
- 4.3268 1 0 ack 40 ------- 0 1.0 0.0 58 165
r 4.3452 1 0 ack 40 ------- 0 1.0 0.0 55 161
+ 4.3452 0 1 tcp 1040 ------- 0 0.0 1.0 61 166
- 4.3516 0 1 tcp 1040 ------- 0 0.0 1.0 61 166
r 4.3684 0 1 tcp 1040 ------- 0 0.0 1.0 58 159
+ 4.3684 1 0 ack 40 ------- 0 1.0 0.0 58 167
- 4.3684 1 0 ack 40 ------- 0 1.0 0.0 58 167
r 4.3868 1 0 ack 40 ------- 0 1.0 0.0 58 163
+ 4.3868 0 1 tcp 1040 ------- 0 0.0 1.0 62 168
+ 4.3868 0 1 tcp 1040 ------- 0 0.0 1.0 63 169
- 4.3932 0 1 tcp 1040 ------- 0 0.0 1.0 62 168
r 4.41 0 1 tcp 1040 ------- 0 0.0 1.0 59 162
+ 4.41 1 0 ack 40 ------- 0 1.0 0.0 59 170
- 4.41 1 0 ack 40 ------- 0 1.0 0.0 59 170
r 4.4284 1 0 ack 40 ------- 0 1.0 0.0 58 165
+ 4.4284 0 1 tcp 1040 ------- 0 0.0 1.0 64 171
- 4.4348 0 1 tcp 1040 ------- 0 0.0 1.0 63 169
r 4.4516 0 1 tcp 1040 ------- 0 0.0 1.0 60 164
+ 4.4516 1 0 ack 40 ------- 0 1.0 0.0 60 172
- 4.4516 1 0 ack 40 ------- 0 1.0 0.0 60 172
r 4.47 1 0 ack 40 ------- 0 1.0 0.0 58 167
+ 4.47 0 1 tcp 1040 ------- 0 0.0 1.0 65 173
- 4.4764 0 1 tcp 1040 ------- 0 0.0 1.0 64 171
r 4.4932 0 1 tcp 1040 ------- 0 0.0 1.0 61 166
+ 4.4932 1 0 ack 40 ------- 0 1.0 0.0 61 174
- 4.4932 1 0 ack 40 ------- 0 1.0 0.0 61 174
r 4.5116 1 0 ack 40 ------- 0 1.0 0.0 59 170
- 4.518 0 1 tcp 1040 ------- 0 0.0 1.0 65 173
r 4.5348 0 1 tcp 1040 ------- 0 0.0 1.0 62 168
+ 4.5348 1 0 ack 40 ------- 0 1.0 0.0 62 175
- 4.5348 1 0 ack 40 ------- 0 1.0 0.0 62 175
r 4.5532 1 0 ack 40 ------- 0 1.0 0.0 60 172
+ 4.5532 0 1 tcp 1040 ------- 0 0.0 1.0 66 176
- 4.5596 0 1 tcp 1040 ------- 0 0.0 1.0 66 176
r 4.5764 0 1 tcp 1040 ------- 0 0.0 1.0 63 169
+ 4.5764 1 0 ack 40 ------- 0 1.0 0.0 63 177
- 4.5764 1 0 ack 40 ------- 0 1.0 0.0 63 177
r 4.5948 1 0 ack 40 ------- 0 1.0 0.0 61 174
+ 4.5948 0 1 tcp 1040 ------- 0 0.0 1.0 67 178
- 4.6012 0 1 tcp 1040 ------- 0 0.0 1.0 67 178
r 4.618 0 1 tcp 1040 ------- 0 0.0 1.0 64 171
+ 4.618 1 0 ack 40 ------- 0 1.0 0.0 64 179
- 4.618 1 0 ack 40 ------- 0 1.0 0.0 64 179
r 4.6364 1 0 ack 40 ------- 0 1.0 0.0 62 175
+ 4.6364 0 1 tcp 1040 ------- 0 0.0 1.0 68 180
- 4.6428 0 1 tcp 1040 ------- 0 0.0 1.0 68 180
r 4.6596 0 1 tcp 1040 ------- 0 0.0 1.0 65 173
+ 4.6596 1 0 ack 40 ------- 0 1.0 0.0 65 181
- 4.6596 1 0 ack 40 ------- 0 1.0 0.0 65 181
r 4.678 1 0 ack 40 ------- 0 1.0 0.0 63 177
+ 4.678 0 1 tcp 1040 ------- 0 0.0 1.0 69 182
- 4.6844 0 1 tcp 1040 ------- 0 0.0 1.0 69 182
r 4.7012 0 1 tcp 1040 ------- 0 0.0 1.0 66 176
+ 4.7012 1 0 ack 40 ------- 0 1.0 0.0 66 183
- 4.7012 1 0 ack 40 ------- 0 1.0 0.0 66 183
r 4.7196 1 0 ack 40 ------- 0 1.0 0.0 64 179
+ 4.7196 0 1 tcp 1040 ------- 0 0.0 1.0 70 184
- 4.726 0 1 tcp 1040 ------- 0 0.0 1.0 70 184
r 4.7428 0 1 tcp 1040 ------- 0 0.0 1.0 67 178
+ 4.7428 1 0 ack 40 ------- 0 1.0 0.0 67 185
- 4.7428 1 0 ack 40 ------- 0 1.0 0.0 67 185
r 4.7612 1 0 ack 40 ------- 0 1.0 0.0 65 181
+ 4.7612 0 1 tcp 1040 ------- 0 0.0 1.0 71 186
- 4.7676 0 1 tcp 1040 ------- 0 0.0 1.0 71 186
r 4.7844 0 1 tcp 1040 ------- 0 0.0 1.0 68 180
+ 4.7844 1 0 ack 40 ------- 0 1.0 0.0 68 187
- 4.7844 1 0 ack 40 ------- 0 1.0 0.0 68 187
r 4.8028 1 0 ack 40 ------- 0 1.0 0.0 66 183
+ 4.8028 0 1 tcp 1040 ------- 0 0.0 1.0 72 188
+ 4.8028 0 1 tcp 1040 ------- 0 0.0 1.0 73 189
- 4.8092 0 1 tcp 1040 ------- 0 0.0 1.0 72 188
r 4.826 0 1 tcp 1040 ------- 0 0.0 1.0 69 182
+ 4.826 1 0 ack 40 ------- 0 1.0 0.0 69 190
- 4.826 1 0 ack 40 ------- 0 1.0 0.0 69 190
r 4.8444 1 0 ack 40 ------- 0 1.0 0.0 67 185
+ 4.8444 0 1 tcp 1040 ------- 0 0.0 1.0 74 191
- 4.8508 0 1 tcp 1040 ------- 0 0.0 1.0 73 189
r 4.8676 0 1 tcp 1040 ------- 0 0.0 1.0 70 184
+ 4.8676 1 0 ack 40 ------- 0 1.0 0.0 70 192
- 4.8676 1 0 ack 40 ------- 0 1.0 0.0 70 192
r 4.886 1 0 ack 40 ------- 0 1.0 0.0 68 187
+ 4.886 0 1 tcp 1040 ------- 0 0.0 1.0 75 193
- 4.8924 0 1 tcp 1040 ------- 0 0.0 1.0 74 191
r 4.9092 0 1 tcp 1040 ------- 0 0.0 1.0 71 186
+ 4.9092 1 0 ack 40 ------- 0 1.0 0.0 71 194
- 4.9092 1 0 ack 40 ------- 0 1.0 0.0 71 194
r 4.9276 1 0 ack 40 ------- 0 1.0 0.0 69 190
+ 4.9276 0 1 tcp 1040 ------- 0 0.0 1.0 76 195
- 4.934 0 1 tcp 1040 ------- 0 0.0 1.0 75 193
r 4.9508 0 1 tcp 1040 ------- 0 0.0 1.0 72 188
+ 4.9508 1 0 ack 40 ------- 0 1.0 0.0 72 196
- 4.9508 1 0 ack 40 ------- 0 1.0 0.0 72 196
r 4.9692 1 0 ack 40 ------- 0 1.0 0.0 70 192
+ 4.9692 0 1 tcp 1040 ------- 0 0.0 1.0 77 197
- 4.9756 0 1 tcp 1040 ------- 0 0.0 1.0 76 195
r 4.9924 0 1 tcp 1040 ------- 0 0.0 1.0 73 189
+ 4.9924 1 0 ack 40 ------- 0 1.0 0.0 73 198
- 4.9924 1 0 ack 40 ------- 0 1.0 0.0 73 198
r 5.0108 1 0 ack 40 ------- 0 1.0 0.0 71 194
+ 5.0108 0 1 tcp 1040 ------- 0 0.0 1.0 78 199
- 5.0172 0 1 tcp 1040 ------- 0 0.0 1.0 77 197
r 5.034 0 1 tcp 1040 ------- 0 0.0 1.0 74 191
+ 5.034 1 0 ack 40 ------- 0 1.0 0.0 74 200
- 5.034 1 0 ack 40 ------- 0 1.0 0.0 74 200
r 5.0524 1 0 ack 40 ------- 0 1.0 0.0 72 196
+ 5.0524 0 1 tcp 1040 ------- 0 0.0 1.0 79 201
- 5.0588 0 1 tcp 1040 ------- 0 0.0 1.0 78 199
r 5.0756 0 1 tcp 1040 ------- 0 0.0 1.0 75 193
+ 5.0756 1 0 ack 40 ------- 0 1.0 0.0 75 202
- 5.0756 1 0 ack 40 ------- 0 1.0 0.0 75 202
r 5.094 1 0 ack 40 ------- 0 1.0 0.0 73 198
+ 5.094 0 1 tcp 1040 ------- 0 0.0 1.0 80 203
- 5.1004 0 1 tcp 1040 ------- 0 0.0 1.0 79 201
r 5.1172 0 1 tcp 1040 ------- 0 0.0 1.0 76 195
+ 5.1172 1 0 ack 40 ------- 0 1.0 0.0 76 204
- 5.1172 1 0 ack 40 ------- 0 1.0 0.0 76 204
r 5.1356 1 0 ack 40 ------- 0 1.0 0.0 74 200
+ 5.1356 0 1 tcp 1040 ------- 0 0.0 1.0 81 205
+ 5.1356 0 1 tcp 1040 ------- 0 0.0 1.0 82 206
- 5.142 0 1 tcp 1040 ------- 0 0.0 1.0 80 203
r 5.1588 0 1 tcp 1040 ------- 0 0.0 1.0 77 197
+ 5.1588 1 0 ack 40 ------- 0 1.0 0.0 77 207
- 5.1588 1 0 ack 40 ------- 0 1.0 0.0 77 207
r 5.1772 1 0 ack 40 ------- 0 1.0 0.0 75 202
+ 5.1772 0 1 tcp 1040 ------- 0 0.0 1.0 83 208
- 5.1836 0 1 tcp 1040 ------- 0 0.0 1.0 81 205
r 5.2004 0 1 tcp 1040 ------- 0 0.0 1.0 78 199
+ 5.2004 1 0 ack 40 ------- 0 1.0 0.0 78 209
- 5.2004 1 0 ack 40 ------- 0 1.0 0.0 78 209
r 5.2188 1 0 ack 40 ------- 0 1.0 0.0 76 204
+ 5.2188 0 1 tcp 1040 ------- 0 0.0 1.0 84 210
- 5.2252 0 1 tcp 1040 ------- 0 0.0 1.0 82 206
r 5.242 0 1 tcp 1040 ------- 0 0.0 1.0 79 201
+ 5.242 1 0 ack 40 ------- 0 1.0 0.0 79 211
- 5.242 1 0 ack 40 ------- 0 1.0 0.0 79 211
r 5.2604 1 0 ack 40 ------- 0 1.0 0.0 77 207
+ 5.2604 0 1 tcp 1040 ------- 0 0.0 1.0 85 212
- 5.2668 0 1 tcp 1040 ------- 0 0.0 1.0 83 208
r 5.2836 0 1 tcp 1040 ------- 0 0.0 1.0 80 203
+ 5.2836 1 0 ack 40 ------- 0 1.0 0.0 80 213
- 5.2836 1 0 ack 40 ------- 0 1.0 0.0 80 213
r 5.302 1 0 ack 40 ------- 0 1.0 0.0 78 209
+ 5.302 0 1 tcp 1040 ------- 0 0.0 1.0 86 214
- 5.3084 0 1 tcp 1040 ------- 0 0.0 1.0 84 210
r 5.3252 0 1 tcp 1040 ------- 0 0.0 1.0 81 205
+ 5.3252 1 0 ack 40 ------- 0 1.0 0.0 81 215
- 5.3252 1 0 ack 40 ------- 0 1.0 0.0 81 215
r 5.3436 1 0 ack 40 ------- 0 1.0 0.0 79 211
+ 5.3436 0 1 tcp 1040 ------- 0 0.0 1.0 87 216
- 5.35 0 1 tcp 1040 ------- 0 0.0 1.0 85 212
r 5.3668 0 1 tcp 1040 ------- 0 0.0 1.0 82 206
+ 5.3668 1 0 ack 40 ------- 0 1.0 0.0 82 217
- 5.3668 1 0 ack 40 ------- 0 1.0 0.0 82 217
r 5.3852 1 0 ack 40 ------- 0 1.0 0.0 80 213
+ 5.3852 0 1 tcp 1040 ------- 0 0.0 1.0 88 218
- 5.3916 0 1 tcp 1040 ------- 0 0.0 1.0 86 214
r 5.4084 0 1 tcp 1040 ------- 0 0.0 1.0 83 208
+ 5.4084 1 0 ack 40 ------- 0 1.0 0.0 83 219
- 5.4084 1 0 ack 40 ------- 0 1.0 0.0 83 219
r 5.4268 1 0 ack 40 ------- 0 1.0 0.0 81 215
+ 5.4268 0 1 tcp 1040 ------- 0 0.0 1.0 89 220
- 5.4332 0 1 tcp 1040 ------- 0 0.0 1.0 87 216
r 5.45 0 1 tcp 1040 ------- 0 0.0 1.0 84 210
+ 5.45 1 0 ack 40 ------- 0 1.0 0.0 84 221
- 5.45 1 0 ack 40 ------- 0 1.0 0.0 84 221
r 5.4684 1 0 ack 40 ------- 0 1.0 0.0 82 217
+ 5.4684 0 1 tcp 1040 ------- 0 0.0 1.0 90 222
+ 5.4684 0 1 tcp 1040 ------- 0 0.0 1.0 91 223
- 5.4748 0 1 tcp 1040 ------- 0 0.0 1.0 88 218
r 5.4916 0 1 tcp 1040 ------- 0 0.0 1.0 85 212
+ 5.4916 1 0 ack 40 ------- 0 1.0 0.0 85 224
- 5.4916 1 0 ack 40 ------- 0 1.0 0.0 85 224
r 5.51 1 0 ack 40 ------- 0 1.0 0.0 83 219
+ 5.51 0 1 tcp 1040 ------- 0 0.0 1.0 92 225
- 5.5164 0 1 tcp 1040 ------- 0 0.0 1.0 89 220
r 5.5332 0 1 tcp 1040 ------- 0 0.0 1.0 86 214
+ 5.5332 1 0 ack 40 ------- 0 1.0 0.0 86 226
- 5.5332 1 0 ack 40 ------- 0 1.0 0.0 86 226
r 5.5516 1 0 ack 40 ------- 0 1.0 0.0 84 221
+ 5.5516 0 1 tcp 1040 ------- 0 0.0 1.0 93 227
- 5.558 0 1 tcp 1040 ------- 0 0.0 1.0 90 222
r 5.5748 0 1 tcp 1040 ------- 0 0.0 1.0 87 216
+ 5.5748 1 0 ack 40 ------- 0 1.0 0.0 87 228
- 5.5748 1 0 ack 40 ------- 0 1.0 0.0 87 228
r 5.5932 1 0 ack 40 ------- 0 1.0 0.0 85 224
+ 5.5932 0 1 tcp 1040 ------- 0 0.0 1.0 94 229